LAMMPS data file via write_data, version 7 Feb 2024, timestep = 12000057, units = real

702 atoms
4 atom types
696 bonds
3 bond types
1320 angles
6 angle types
1656 dihedrals
4 dihedral types
840 impropers
5 improper types

13.575758964822464 36.42424103515202 xlo xhi
13.575758964822464 36.42424103515202 ylo yhi
13.575758964822464 36.42424103515202 zlo zhi

Masses

1 28.086
2 12.01115
3 1.00797
4 16

Pair Coeffs # lj/class2/coul/long

1 0.07 4.284
2 0.054 4.01
3 0.02 2.995
4 0.24 3.35

Bond Coeffs # class2

1 1.6562 306.123 -517.342 673.707
2 1.9073 157.005 -237.702 356.033
3 1.101 345 -691.89 844.6

Angle Coeffs # class2

1 114.906 23.0218 -31.3993 24.9814
2 114.906 23.0218 -31.3993 24.9814
3 107.66 39.641 -12.921 -2.4318
4 111.536 30.2481 -15.5255 0
5 157.026 9.074 -19.5576 8.5
6 110.693 70.3069 -6.9375 0

BondBond Coeffs

1 5.4896 1.9073 1.6562
2 5.4896 1.9073 1.9073
3 5.3316 1.101 1.101
4 6.382 1.9073 1.101
5 41.1143 1.6562 1.6562
6 41.1143 1.6562 1.6562

BondAngle Coeffs

1 6.4278 20.5669 1.9073 1.6562
2 4.0414 4.0414 1.9073 1.9073
3 18.103 18.103 1.101 1.101
4 12.8694 14.7189 1.9073 1.101
5 28.6686 28.6686 1.6562 1.6562
6 23.438 23.438 1.6562 1.6562

Dihedral Coeffs # class2

1 0 0 0 0 -0.13 0
2 -1.3513 0 0 0 -0.058 0
3 -1.3513 0 0 0 -0.058 0
4 0.3 0 0.3658 0 0 0

AngleAngleTorsion Coeffs

1 0 114.906 157.026
2 0 114.906 111.536
3 0 114.906 111.536
4 0 110.693 157.026

EndBondTorsion Coeffs

1 0 0 0 0 0 0 1.9073 1.6562
2 0 0 0 0 0 0 1.6562 1.101
3 0 0 0 0 0 0 1.9073 1.101
4 0 0 0 0 0 0 1.6562 1.6562

MiddleBondTorsion Coeffs

1 0 0 0 1.6562
2 0 0 0 1.9073
3 0 0 0 1.9073
4 0 0 0 1.6562

BondBond13 Coeffs

1 0 1.9073 1.6562
2 0 1.6562 1.101
3 0 1.9073 1.101
4 0 1.6562 1.6562

AngleTorsion Coeffs

1 0 0 0 0 0 0 114.906 157.026
2 0 0 0 0 0 0 114.906 111.536
3 0 0 0 0 0 0 114.906 111.536
4 0 0 0 0 0 0 110.693 157.026

Improper Coeffs # class2

1 0 0
2 0 0
3 0 0
4 0 0
5 0 0

AngleAngle Coeffs

1 0 0 0 114.906 114.906 114.906
2 0 0 0 114.906 114.906 114.906
3 -0.3157 -0.3157 -0.3157 107.66 107.66 107.66
4 0 0 0 111.536 107.66 111.536
5 0 0 0 114.906 110.693 114.906

Atoms # full

368 4 2 -0.259 16.640744972115648 18.93844457711326 15.337857966765688 1 0 0
372 4 3 0.053 16.91487867876848 17.901052039632877 15.68698014835077 1 0 0
374 4 3 0.053 15.636907734583703 18.915813738306408 14.940288842762195 1 0 0
128 2 3 0.053 14.526497643865637 17.241019331397304 18.86557984884138 1 1 0
326 3 3 0.053 16.844993701743206 14.450145382578091 16.60134919823926 -3 2 2
320 3 2 -0.259 13.882098344800657 14.573672721800234 15.715803839262078 -3 2 2
323 3 3 0.053 14.0849353299759 15.360636350102942 16.481870219889473 -3 2 2
359 4 3 0.053 17.916297891244852 16.78691841261466 18.842103529615912 1 0 0
322 3 3 0.053 13.632704018493351 15.108241862920284 14.779052982047437 -3 2 2
603 6 3 0.053 23.120753232389532 16.033852264048924 14.709852061377006 1 0 0
604 6 3 0.053 22.222951373978997 17.40601443224223 15.311137361376375 1 0 0
601 6 2 -0.259 23.059680616818483 17.133916011324533 14.7037278612422 1 0 0
605 6 3 0.053 23.95205010132488 17.508940030143876 15.356240859213742 1 0 0
295 3 3 0.053 22.634726563736585 13.857710396705464 14.767107532695668 -3 2 2
614 6 3 0.053 20.22955669410005 15.999906408761927 14.133152309040385 1 0 0
364 4 3 0.053 20.873780581794897 18.639180012680846 18.4805258093469 1 0 0
373 4 3 0.053 17.348373181463845 19.287780292048467 14.619734334902727 1 0 0
370 4 3 0.053 14.598995922914982 19.892284917775264 18.48142625109882 1 0 0
365 4 4 -0.44 17.605663273897257 19.64155303242191 18.115650831014445 1 0 0
371 4 3 0.053 14.073643094839872 19.660609730851927 16.846487148449842 1 0 0
369 4 3 0.053 14.437168403177033 21.28951760833412 17.597110998932628 1 0 0
367 4 2 -0.259 14.77686454507906 20.28897055237227 17.473640967023123 1 0 0
382 4 3 0.053 15.483990411325205 24.319113374695647 17.02778249978422 1 0 0
385 4 4 -0.44 18.24902212635736 23.46068620212767 14.53571562694375 1 0 0
375 4 4 -0.44 17.212378857221747 21.5790846537945 16.309791574187578 1 0 0
366 4 1 0.64 16.656093171815193 20.150656332473652 16.891043221214602 1 0 0
376 4 1 0.64 17.68701850549658 23.190678197482008 16.06550531782398 1 0 0
377 4 2 -0.259 18.882519350683545 23.55928561596499 17.4606457441765 1 0 0
378 4 2 -0.259 16.15690890602405 24.30164288629487 16.189683788017213 1 0 0
383 4 3 0.053 15.526551485899445 24.095641183152345 15.335704697039587 1 0 0
379 4 3 0.053 18.481614630479996 23.46706528527372 18.53470049982043 1 0 0
380 4 3 0.053 19.43867619236321 24.451764726044082 17.300687232803448 1 0 0
361 4 2 -0.259 20.404665585024663 19.603727368488716 18.818280944439735 1 0 0
363 4 3 0.053 20.525167620013352 20.392966310723327 18.053610736675694 1 0 0
38 1 3 0.053 22.813844689439343 24.12130737869969 18.867380127365116 0 0 0
381 4 3 0.053 19.670069407764544 22.813211682050287 17.431999613489054 1 0 0
589 6 3 0.053 22.360333755724838 20.48544238811516 16.159180564903387 1 0 0
591 6 3 0.053 22.935526352504432 22.222248475669197 16.30925992026795 1 0 0
587 6 2 -0.259 22.63355992344083 21.379376527027716 15.604184667474511 1 0 0
586 6 1 0.52 23.95449238360274 21.0568113150759 14.280746637336796 1 0 0
597 6 3 0.053 24.4535042256401 23.3792912121395 13.57736905529216 1 0 0
590 6 3 0.053 21.755143556394216 21.813046891847435 14.99628757988123 1 0 0
39 1 3 0.053 24.396546065084003 24.87305195996352 19.11117192392755 0 0 0
354 4 2 -0.259 18.59481347100437 17.35326441974216 19.572990342953112 1 0 0
360 4 3 0.053 18.159156144904333 17.071772371027578 20.55601912018903 1 0 0
459 4 3 0.053 17.38844333476131 14.467049685066733 24.072557073773346 1 1 -1
127 2 2 -0.259 14.333532538819505 17.03471840827836 19.96846159625811 1 1 0
124 2 3 0.053 14.842588603423897 17.1825772731294 22.824679519035985 1 1 0
130 2 3 0.053 15.297715585795322 16.71979490751729 20.400286690224192 1 1 0
120 2 2 -0.259 13.775466732981071 17.57546386301083 22.82559015133855 1 1 0
129 2 3 0.053 13.793881738929318 16.09501347109496 19.868785585955997 1 1 0
655 6 3 0.053 18.029901590788757 19.147538563397262 24.574013561749275 1 0 -1
358 4 3 0.053 19.596752565076166 16.88861885509258 19.459302878109202 1 0 0
92 1 3 0.053 20.857106458573533 16.802402517240168 24.18716184318077 0 0 0
93 1 3 0.053 20.665821269058288 15.090256071755032 23.983436143454213 0 0 0
75 1 1 0.64 24.642121775025657 18.27707350920375 23.870561898474698 0 0 0
86 1 2 -0.259 22.54220099089504 16.31037890787672 20.73323405149258 0 0 0
90 1 3 0.053 23.559572674796687 16.139465823577613 20.279578889344833 0 0 0
94 1 4 -0.44 23.237424393000516 14.43227189178555 22.892727048682772 0 0 0
88 1 3 0.053 22.225050754107862 17.30663368503311 20.393048092544475 0 0 0
84 1 4 -0.44 23.771509956916233 17.023564067755146 23.32368783472929 0 0 0
85 1 1 0.64 22.712298907946188 15.955395467196102 22.626773987003336 0 0 0
89 1 3 0.053 21.90959836867266 15.597243705338006 20.25168631152244 0 0 0
87 1 2 -0.259 20.93296975965372 16.014215059734546 23.47043772670157 0 0 0
91 1 3 0.053 20.069989532304735 16.166530315958845 22.746229047365397 0 0 0
352 4 1 0.52 18.65953844299812 19.309423732073178 19.3881930230651 1 0 0
651 6 2 -0.259 17.931820435603342 20.241690928314437 24.622181623913796 1 0 -1
122 2 3 0.053 14.06704241622312 20.479432096350706 21.99918564744685 1 1 0
702 6 3 0.053 15.122678646004783 23.398198313786278 21.713110713168057 1 0 -1
653 6 3 0.053 18.246341120663374 20.425232684460497 23.624930537592068 1 0 -1
119 2 2 -0.259 13.880798843971249 20.049290347518536 21.031230749987227 1 1 0
121 2 3 0.053 14.867342092153162 20.114028765794934 20.472113188021154 1 1 0
353 4 2 -0.259 18.34518126289964 20.311682102427547 20.988114097068934 1 0 0
356 4 3 0.053 19.309347022847582 20.92261927525568 21.152586124176466 1 0 0
677 6 3 0.053 14.824108372608615 21.02717431458113 24.45354920272193 1 0 -1
126 2 3 0.053 13.7791875240887 18.42425610523731 23.55635190029423 1 1 0
357 4 3 0.053 18.331066036403403 19.54124064322175 21.784990979865636 1 0 0
355 4 3 0.053 17.51284218577482 20.99684087143461 21.14629191982423 1 0 0
699 6 2 -0.259 14.24634987749856 24.03903771179304 21.65159873010947 1 0 -1
700 6 3 0.053 14.567224842814829 24.790653128651165 20.905451120093836 1 0 -1
654 6 3 0.053 16.860925665278685 20.438401265854523 24.739303691975444 1 0 -1
74 1 4 -0.44 24.487471593761875 19.543089612937674 22.754948984576078 0 0 0
362 4 3 0.053 21.062311050957724 19.97477637896224 19.69868910377471 1 0 0
71 1 3 0.053 23.056437998758646 22.911731655557126 21.348369865188527 0 0 0
658 6 3 0.053 20.62155724797025 21.491968969602446 24.270427911146044 1 0 -1
67 1 2 -0.259 22.96164454570713 21.9075753957815 21.74389243734383 0 0 0
70 1 3 0.053 24.69569090186326 19.58732797934443 19.624953555706675 0 0 0
72 1 3 0.053 22.604660269192493 21.897565620057865 22.799639936780906 0 0 0
42 1 3 0.053 21.278966470429843 24.24767350871017 21.61634928687416 0 0 0
65 1 1 0.64 24.721314329158027 20.984338570432083 21.87978533711857 0 0 0
73 1 3 0.053 22.212901442294857 21.29195834751559 21.178687426968075 0 0 0
43 1 3 0.053 20.220289518174376 24.94157611182141 20.35330312462108 0 0 0
632 6 2 -0.259 17.156646504567032 17.571981327205947 29.938408708571146 1 0 -1
638 6 3 0.053 16.647116771509037 16.84847685604871 30.627519966733416 1 0 -1
636 6 3 0.053 18.144149003754087 17.10696599846079 29.678685398655404 1 0 -1
637 6 3 0.053 16.709849484538545 17.58410073021741 28.932153867484853 1 0 -1
456 4 3 0.053 18.562615494771155 14.070401155288055 27.1439447674814 1 1 -1
460 4 3 0.053 16.449723186357062 13.928109165010353 25.43271054087515 1 1 -1
643 6 3 0.053 20.478239203017512 17.898919127929098 29.59854317989617 1 0 -1
645 6 3 0.053 19.680380636823916 17.47126595236017 28.023997389948235 1 0 -1
641 6 2 -0.259 20.46161622314883 18.11029512779392 28.48418987245126 1 0 -1
644 6 3 0.053 21.379701522362048 17.8063805398793 27.927023692594858 1 0 -1
79 1 3 0.053 24.039435899519574 17.792885167931626 26.22387640035441 0 0 0
80 1 3 0.053 22.99531409161088 19.098326394307 25.737525113062524 0 0 0
76 1 2 -0.259 24.017753609202188 18.68838434245132 25.625737539580314 0 0 0
457 4 3 0.053 19.872558626177007 14.559211819255472 26.031801940187606 1 1 -1
669 6 4 -0.44 15.254861670904429 23.50592565384209 26.277544333688926 1 0 -1
639 6 4 -0.44 18.91142470531419 19.880407370150945 29.9414188841627 1 0 -1
631 6 2 -0.259 16.187857228989056 20.46421558753589 30.295507976753555 1 0 -1
634 6 3 0.053 15.789479061913578 20.315172790375765 29.28481326311139 1 0 -1
659 6 4 -0.44 17.91492187039424 22.535696306797384 26.68220066877219 1 0 -1
660 6 1 0.64 16.86493539338871 23.917478238509386 26.79351929384657 1 0 -1
635 6 3 0.053 16.331119899039972 21.543120272145853 30.425542600007617 1 0 -1
650 6 1 0.64 18.819550270269897 21.265955558341265 26.047325215120576 1 0 -1
670 6 1 0.64 13.775763379796889 23.00155234043483 25.73426141712767 1 0 -1
676 6 3 0.053 14.508930400371806 20.598075707355132 26.162103334978944 1 0 -1
662 6 2 -0.259 17.196084974539833 24.396648181978733 28.585807795927643 1 0 -1
666 6 3 0.053 18.285820602809917 24.332330025963977 28.720510698049004 1 0 -1
672 6 2 -0.259 14.128671206789361 21.12030654891578 25.315023851936253 1 0 -1
667 6 3 0.053 16.73836737295187 23.74764293018994 29.39436632253486 1 0 -1
657 6 3 0.053 20.230640756877463 23.12423736538154 25.000170251988607 1 0 -1
78 1 3 0.053 24.601480119268153 19.421326343415277 26.164206371056803 0 0 0
649 6 4 -0.44 19.220338847169238 20.12685166627443 27.22701411421398 1 0 -1
640 6 1 0.64 19.996346246406596 19.941052696153868 28.67551007515719 1 0 -1
648 6 3 0.053 22.33185541350054 21.116827153040457 28.093001281927783 1 0 -1
642 6 2 -0.259 21.59812753525724 21.095850422009807 28.91397032418723 1 0 -1
647 6 3 0.053 21.25919720300983 22.137668453828304 29.13740958000595 1 0 -1
596 6 3 0.053 24.879319288667002 22.257929699587955 35.20812072870816 1 0 -1
646 6 3 0.053 22.15671494478271 20.88158343499963 29.869225849344623 1 0 -1
652 6 2 -0.259 20.32292392821285 22.057939100121402 25.253729693596334 1 0 -1
656 6 3 0.053 21.18472387319114 21.95163705935485 25.95252725876111 1 0 -1
630 6 1 0.64 17.571217454240955 19.224985547512244 30.748691087419616 1 0 -1
315 3 3 0.053 15.425449818002674 14.849972863213393 34.303871767766495 -3 2 1
317 3 3 0.053 17.156576343849117 15.017157518713443 34.76624356280996 -3 2 1
619 6 4 -0.44 19.26192688757072 18.158141372220058 34.49858119294476 1 0 -1
627 6 3 0.053 16.429674304076133 17.736945412648012 35.65505015432891 1 0 -1
622 6 2 -0.259 16.240206266606272 18.10507303084003 34.66778173000567 1 0 -1
628 6 3 0.053 16.192877499765295 17.165240204696026 34.03651722040288 1 0 -1
626 6 3 0.053 15.318528524731384 18.638147016794882 34.64100010502335 1 0 -1
311 3 2 -0.259 16.395747058985087 14.327652470216854 34.26587419427851 -3 2 1
316 3 3 0.053 16.68071336039724 14.157826963665457 33.21456984529589 -3 2 1
620 6 1 0.64 17.81133400738652 19.053492016323247 34.09567273597985 1 0 -1
629 6 4 -0.44 17.672064601563132 19.172543963623262 32.381438498379374 1 0 -1
613 6 3 0.053 18.760456402613542 15.897724458082273 36.07879500137212 1 0 -1
294 3 3 0.053 23.892528367464916 13.785340123037878 34.67641927081796 -3 2 1
602 6 2 -0.259 24.800018965452097 17.03497523397532 34.776553723309256 1 0 -1
607 6 3 0.053 24.429292068072478 16.088326387785436 34.444899977455805 1 0 -1
615 6 3 0.053 19.941915943466167 14.745107482022542 35.745451208831376 1 0 -1
611 6 2 -0.259 19.790243354911482 15.826593734273969 35.992788274332334 1 0 -1
617 6 3 0.053 19.949933444113572 15.406540650090294 32.90028922792124 1 0 -1
292 3 3 0.053 22.364413797589783 14.590805454403327 34.90355226306114 -3 2 1
600 6 1 0.64 23.3199177436365 17.9882449096414 35.7984688923293 1 0 -1
610 6 1 0.64 20.45869245613934 17.01317551063023 34.62904953282838 1 0 -1
618 6 3 0.053 21.77453278236824 15.708476597017526 32.89259094002033 1 0 -1
612 6 2 -0.259 20.744662798059775 16.12341180111711 32.97724850310962 1 0 -1
616 6 3 0.053 20.508351434770155 16.891207807227172 32.234822248190284 1 0 -1
609 6 4 -0.44 21.84673364934645 17.8367088108117 35.048898700114975 1 0 -1
290 3 2 -0.259 22.844794716550894 13.635109003640727 34.6594392895458 -3 2 1
575 5 3 0.053 24.643859423064775 20.49038062702012 31.529620917495322 1 -1 0
633 6 3 0.053 15.290666879623009 20.183208747164773 30.92679728760232 1 0 -1
388 4 2 -0.259 17.05139445105212 24.668957397430862 34.889435047812874 1 0 -1
394 4 3 0.053 16.862718433887984 23.75791194029231 34.27434865265251 1 0 -1
400 4 3 0.053 18.2402104947487 22.742923626525503 32.0621451914572 1 0 -1
386 4 1 0.64 18.667687371614907 24.231387479034378 35.96409097954716 1 0 -1
623 6 3 0.053 17.67448970393707 21.530138847574328 34.32925537514129 1 0 -1
624 6 3 0.053 18.960925859002494 20.936340720819913 35.371127948393024 1 0 -1
621 6 2 -0.259 17.916181979996548 20.74794002525832 34.99817568227351 1 0 -1
625 6 3 0.053 17.346870992720817 20.98592489751696 35.948975162754955 1 0 -1
397 4 2 -0.259 19.03012033149406 23.579519978114718 31.985087121762533 1 0 -1
399 4 3 0.053 18.757448579364723 24.58919317038002 32.20646919233008 1 0 -1
393 4 3 0.053 16.199764293739257 24.751125205036203 35.56950899936733 1 0 -1
403 4 3 0.053 20.753513724065954 20.905695997402635 32.33201795473766 1 0 -1
404 4 3 0.053 21.026819403324346 20.860068688327758 34.08353449096622 1 0 -1
598 6 3 0.053 23.188804235148872 22.588858452153623 35.30748717463799 1 0 -1
407 4 2 -0.259 24.420335216432605 24.77965627163833 32.15919291256849 1 0 -1
402 4 3 0.053 22.255173137804505 21.490213595403098 33.06512877855928 1 0 -1
411 4 3 0.053 24.763611805529912 23.7936060669418 32.493482802173475 1 0 -1
401 4 3 0.053 19.41323806289823 23.555274377048548 30.931312653852665 1 0 -1
410 4 3 0.053 24.295200045479046 24.761532871545445 31.07707146810864 1 0 -1
395 4 4 -0.44 19.664678083034843 23.26636877605465 34.89482480138189 1 0 -1
398 4 2 -0.259 21.158281236605408 21.501295838854695 33.139898343717 1 0 -1
405 4 4 -0.44 21.69278693997258 24.270950382541525 33.34405887631987 1 0 -1
396 4 1 0.64 20.403245186523655 23.24311835099423 33.31593989399347 1 0 -1
595 6 2 -0.259 24.109833603148058 22.48147048083176 35.93030558618412 1 0 -1
599 6 4 -0.44 23.520915181573066 19.69044314694981 36.078670026934255 1 0 -1
453 4 2 -0.259 19.374301771879637 13.660853591994178 26.543747783357638 1 1 -1
421 4 3 0.053 21.419705792101496 24.97675148197035 29.00288646214456 1 0 -1
21 1 3 0.053 17.730449905324804 27.551717652982898 17.450657442998384 0 0 0
17 1 2 -0.259 17.389516754940704 28.241639384545895 18.330209058000108 0 0 0
22 1 3 0.053 16.330779882014905 28.33042997535418 18.163532659460362 0 0 0
23 1 3 0.053 17.5213366993835 27.641774733246407 19.22597241241553 0 0 0
335 3 1 0.52 14.630934515078538 30.45901579232283 14.3171415930149 -3 1 2
15 1 1 0.64 18.358094742440684 29.877512842164442 18.46249994607259 0 0 0
336 3 2 -0.259 14.970815316630846 28.874745398392434 15.410605286928886 -3 1 2
341 3 3 0.053 14.997638421522241 27.98882408836009 14.794996942844968 -3 1 2
339 3 3 0.053 14.268225652338096 28.780125492245265 16.209869601220717 -3 1 2
340 3 3 0.053 15.934392928072551 28.94670140745935 15.875627531713967 -3 1 2
384 4 3 0.053 16.51862655575209 25.343564186002627 16.126779619910124 1 0 0
27 1 2 -0.259 22.123902107909117 28.456654459529172 16.736006659295136 0 0 0
24 1 4 -0.44 19.959726566675364 29.37510880227143 18.408198070027474 0 0 0
25 1 1 0.64 21.590838633210115 28.870041090080928 18.532952846238455 0 0 0
33 1 3 0.053 23.188716819501245 28.32486924266822 16.56464093816846 0 0 0
31 1 3 0.053 21.792731638861678 29.208488733086327 15.988240527953918 0 0 0
32 1 3 0.053 21.566546873769827 27.523299852133725 16.40098929937671 0 0 0
40 1 3 0.053 23.230838372680715 25.664062620654978 17.95796921358176 0 0 0
26 1 2 -0.259 22.749423159988304 30.321657442337454 19.097716821833377 0 0 0
30 1 3 0.053 23.772200347486788 30.055942483461024 18.78233156081395 0 0 0
390 4 3 0.053 19.515535967230512 26.318444301191953 14.46753782194051 1 0 0
97 1 4 -0.44 23.71852968061917 34.86032045781096 24.112915234508044 0 -1 0
36 1 2 -0.259 23.305715822534466 25.078986354719625 18.881569606520998 0 0 0
454 4 2 -0.259 17.066973753680607 36.418325843300785 24.626811579954797 1 0 -1
16 1 2 -0.259 18.054741071380317 31.054712851717497 16.966431071870833 0 0 0
18 1 3 0.053 18.660949097291727 30.8355118554939 16.086098921339605 0 0 0
20 1 3 0.053 17.078003548404716 30.96864254469645 16.467982220128796 0 0 0
331 3 4 -0.44 14.639949922142765 31.956640501808238 15.174767202164388 -3 1 2
318 3 4 -0.44 15.68062661662482 35.8932704362068 13.850666997303685 -3 1 2
328 3 4 -0.44 14.517345807297382 34.5202458447001 16.055491798918794 -3 1 2
329 3 1 0.64 13.875333069575365 32.9777014563524 16.270418956646534 -3 1 2
319 3 1 0.64 15.16717323742053 35.906100251813236 15.47245282998717 -3 1 2
327 3 3 0.053 17.521211611873326 35.703682309869556 16.19590176904531 -3 1 2
321 3 2 -0.259 16.620530694424033 36.26046918749104 16.61937754374518 -3 1 2
325 3 3 0.053 16.452042439609535 35.94292706885263 17.704372860354106 -3 1 2
330 3 2 -0.259 14.381144678509163 32.33847595538168 17.978874046674186 -3 1 2
19 1 3 0.053 18.151092519351707 32.10839148933821 17.24861225390606 0 0 0
333 3 3 0.053 15.474704896390298 32.34708901094353 17.948226889635055 -3 1 2
334 3 3 0.053 14.045358684201858 31.29827350148831 18.17191569757621 -3 1 2
332 3 3 0.053 13.89980002222977 32.87863306835713 18.810233480142116 -3 1 2
297 3 3 0.053 21.686457525149404 35.27800178821368 15.235074855543939 -3 1 2
291 3 2 -0.259 22.526169164289605 35.59731397624819 14.632979564583968 -3 1 2
296 3 3 0.053 23.50399713438175 35.14296081311241 14.97487091172116 -3 1 2
29 1 3 0.053 22.612846264723082 31.300802837255958 18.628394249997932 0 0 0
685 6 3 0.053 15.347396527939612 26.408303873285394 23.414653635968918 1 0 -1
5 1 3 0.053 16.38857137497609 29.470006863202656 22.542574280667836 0 0 0
6 1 3 0.053 17.469446338423165 30.17753879490771 23.783926329433356 0 0 0
2 1 2 -0.259 17.423818201367904 29.85447413532262 22.78361873350954 0 0 0
14 1 4 -0.44 17.880576090881412 30.59317344017888 19.910910085389766 0 0 0
4 1 3 0.053 17.908983677065624 28.92638266869696 22.73186818362185 0 0 0
684 6 3 0.053 13.857422024377646 27.409473343134472 23.146330248713852 1 0 -1
681 6 2 -0.259 14.290645043709164 26.530801788448265 23.64932563754683 1 0 -1
683 6 3 0.053 14.067154885380663 26.709612911383708 24.68350058849235 1 0 -1
665 6 3 0.053 17.363226114665054 25.433349096343008 24.787700636460045 1 0 -1
52 1 3 0.053 24.788469176581465 28.548359182383713 23.602281252766993 0 0 0
34 1 4 -0.44 21.75708460958924 27.51364232069269 19.549417025302027 0 0 0
50 1 3 0.053 22.4491543248994 25.16282077241493 23.96134460904738 0 0 0
28 1 3 0.053 22.70882375970445 30.50074017310304 20.14660784760272 0 0 0
41 1 3 0.053 20.46718994996436 25.846661896926637 21.82506679862972 0 0 0
45 1 1 0.64 24.431982065214914 26.221157888797677 22.801908210070813 0 0 0
48 1 3 0.053 22.454276838705965 26.80313035351935 24.399333645438357 0 0 0
35 1 1 0.64 22.336696769320767 26.141002054542014 20.18415778820011 0 0 0
44 1 4 -0.44 23.51186066728304 26.49630773690474 21.395187696402367 0 0 0
7 1 3 0.053 20.451523451897827 30.33891823897634 21.52837888870864 0 0 0
46 1 2 -0.259 23.143806154941842 25.95206967356241 24.25559918076805 0 0 0
37 1 2 -0.259 20.98151050359223 25.148454118543494 21.083827280071674 0 0 0
1 1 1 0.52 18.06405290810875 31.093477474357982 21.52226448180019 0 0 0
463 4 3 0.053 19.095455445217915 34.83771772134074 22.799994065741604 1 0 -1
461 4 3 0.053 16.371681642853996 35.84657665216628 23.92821917048221 1 0 -1
12 1 3 0.053 15.952980463855221 32.36982003420884 21.950424744833946 0 0 0
11 1 3 0.053 17.303079063243704 33.07363513071957 22.982311516871263 0 0 0
10 1 2 -0.259 17.021594159490732 32.62479888894424 22.0016211517877 0 0 0
13 1 3 0.053 16.990484513255073 33.409767943364415 21.237226733483052 0 0 0
462 4 3 0.053 20.25875242147333 35.99297114489254 23.498366858649923 1 0 -1
464 4 3 0.053 20.33391227260425 34.343599351200396 23.950304653087297 1 0 -1
98 1 3 0.053 24.25307095101222 33.91082294731779 21.16240974710223 0 -1 0
112 1 3 0.053 23.643731734615443 31.843740638187555 23.716760471535146 0 -1 0
3 1 2 -0.259 19.920243391992322 31.219335554525905 21.91633505576081 0 0 0
99 1 3 0.053 24.12097124205721 35.37609828262268 20.32638540647782 0 -1 0
8 1 3 0.053 20.116424595734948 31.323111951623858 22.974956228344436 0 0 0
100 1 3 0.053 22.68976839229954 34.59251587199597 21.030816320986872 0 -1 0
95 1 1 0.64 24.06398938528162 35.81557715571789 22.808640274512875 0 -1 0
9 1 3 0.053 20.435981448917147 32.10067667863175 21.526962145638503 0 0 0
455 4 2 -0.259 19.643613731148477 35.12831468074928 23.728338711576693 1 0 -1
104 1 2 -0.259 24.464746583040686 32.06826939493839 24.418842720978226 0 -1 0
96 1 2 -0.259 23.7009055252964 34.85003977855243 21.197044475689083 0 -1 0
441 4 3 0.053 16.036136097567802 27.96512866674315 27.119728353332086 1 0 -1
437 4 2 -0.259 16.00104313050602 29.066311910541014 27.164716309581323 1 0 -1
440 4 3 0.053 15.277599828139842 29.243615729825276 27.985887917463383 1 0 -1
439 4 3 0.053 15.552109815154108 29.376852506233423 26.19360176972658 1 0 -1
436 4 1 0.64 17.737844574493355 29.977237361474927 27.549956591357663 1 0 -1
442 4 3 0.053 18.703062722643303 29.35593718610741 25.161720526027555 1 0 -1
661 6 2 -0.259 17.53061902948924 25.46405912772118 25.84196669572609 1 0 -1
663 6 3 0.053 18.56103376994754 25.7836371436575 25.996878230452868 1 0 -1
664 6 3 0.053 16.839423524797695 26.305297759245914 25.955278203152726 1 0 -1
435 4 4 -0.44 18.52682427860041 29.564537103603143 28.97383199542709 1 0 -1
438 4 2 -0.259 19.13391907779965 29.424296380980827 26.190033948857945 1 0 -1
668 6 3 0.053 17.193203864950664 25.54354673595088 28.732723323068434 1 0 -1
443 4 3 0.053 19.631337701873463 28.457897259529865 26.483826532166475 1 0 -1
419 4 3 0.053 21.267356474832653 26.40871386176736 27.94397630385331 1 0 -1
417 4 2 -0.259 21.005288406187997 26.005353536359173 28.907408990690346 1 0 -1
418 4 2 -0.259 23.066651698530606 27.986170674840366 29.492892276502012 1 0 -1
422 4 3 0.053 23.398189184524917 28.858226064384944 30.058824292609117 1 0 -1
272 3 3 0.053 24.968529413093698 30.769334217357482 31.08843525678241 -3 1 1
423 4 3 0.053 22.844756985516796 28.312077487652992 28.43181217868337 1 0 -1
420 4 3 0.053 19.962362609306435 25.944471423808263 28.754592929804797 1 0 -1
424 4 3 0.053 23.91258634185813 27.361221140245362 29.48077465751634 1 0 -1
49 1 3 0.053 23.717610209606008 25.625699179150836 25.12652937665802 0 0 0
444 4 3 0.053 19.98100520712682 30.09245840584095 26.029385487317402 1 0 -1
426 4 1 0.64 19.262171966303423 29.680946956150272 30.441031944204646 1 0 -1
416 4 1 0.64 21.546257668722124 27.18449009600909 30.32323028113919 1 0 -1
425 4 4 -0.44 20.377626426773944 28.38350381182174 30.632035660158444 1 0 -1
452 4 1 0.52 18.501357542945396 35.38325435531535 25.199368746661193 1 0 -1
449 4 3 0.053 14.611492149359881 34.114215091072566 27.086229245167033 1 0 -1
450 4 3 0.053 14.604592801276137 32.294564614015144 26.9349562230214 1 0 -1
448 4 4 -0.44 18.065975713733188 33.98642741508055 25.984003142338285 1 0 -1
445 4 4 -0.44 17.446145156207145 31.617605803981675 27.388992043176238 1 0 -1
446 4 1 0.64 17.071578558113778 33.216667077929266 27.12046792652041 1 0 -1
447 4 2 -0.259 15.114433386801943 33.24143759784194 26.650703282145482 1 0 -1
451 4 3 0.053 15.072006990399355 33.24578614315918 25.559748254155032 1 0 -1
465 4 2 -0.259 17.477781295161922 34.039072515411476 28.76603698168878 1 0 -1
468 4 3 0.053 16.6004995559732 34.458037819736234 29.269954770324723 1 0 -1
466 4 3 0.053 18.31162586934232 34.72008362669521 28.91693143959749 1 0 -1
467 4 3 0.053 17.779527998493123 33.23866370346368 29.374927787915368 1 0 -1
458 4 3 0.053 20.04203800711053 35.91148214457693 27.28318503101766 1 0 -1
102 1 2 -0.259 22.320274701669135 33.35831386390958 26.22515963639964 0 -1 0
107 1 3 0.053 22.519065411496147 32.595601908413876 26.9779983782404 0 -1 0
101 1 1 0.52 23.901399117173916 33.71878362754382 25.29959389096692 0 -1 0
105 1 3 0.053 21.435335666868617 33.12089121083465 25.614055737557436 0 -1 0
106 1 3 0.053 22.10001782088049 34.36863849345872 26.673451094668053 0 -1 0
293 3 3 0.053 22.53501314248409 36.2473561511112 33.64946329121133 -3 1 1
429 4 3 0.053 21.03361682023168 31.112922581315836 29.671451581702954 1 0 -1
427 4 2 -0.259 20.395293864553846 31.262257705714845 30.53378394318515 1 0 -1
431 4 3 0.053 19.66911536185492 32.008583101964014 30.291329219680918 1 0 -1
273 3 3 0.053 24.528946834266552 31.93234962845738 29.983976186344037 -3 1 1
113 1 3 0.053 24.464755071843793 31.209832872503 25.085205392008938 0 -1 0
110 1 3 0.053 24.771339983722868 34.83983429823 27.44243701908448 0 -1 0
391 4 3 0.053 19.329811443410847 26.657271707614537 35.550508697657314 1 0 -1
342 3 3 0.053 16.34727464574962 29.586859021514087 35.5304253257581 -3 1 1
392 4 3 0.053 17.07418783033452 25.579132746525342 34.24818752709706 1 0 -1
433 4 3 0.053 17.312978699762507 29.134784785720264 32.172041411932476 1 0 -1
428 4 2 -0.259 18.116548948064064 29.862119973544097 32.04762054769208 1 0 -1
337 3 2 -0.259 16.108397857025 30.60756878324034 35.92117459017358 -3 1 1
432 4 3 0.053 18.837916077783643 29.765160862979457 32.91547317930641 1 0 -1
389 4 3 0.053 20.774075465861934 25.849899928885225 36.147631003387154 1 0 -1
287 3 3 0.053 23.386132643111488 30.547180691104103 36.25196962177642 -3 1 1
286 3 3 0.053 24.508423277872797 30.130578539785844 34.88372610021643 -3 1 1
415 4 4 -0.44 21.913192750864418 26.453170420493592 31.874660985888468 1 0 -1
408 4 2 -0.259 23.174450079510645 26.450877922395655 34.51140563015751 1 0 -1
414 4 3 0.053 23.38497010572742 25.99578746746807 35.46136135044715 1 0 -1
412 4 3 0.053 22.362693168399275 27.17511704714118 34.62212244206727 1 0 -1
406 4 1 0.64 22.81711827738495 25.444711974589545 32.93540804628764 1 0 -1
413 4 3 0.053 24.03600501773761 27.114030361653572 34.26442477223778 1 0 -1
387 4 2 -0.259 19.665901020112823 25.925146667755246 36.327927920548554 1 0 -1
344 3 3 0.053 15.819831292919925 31.216356525799213 35.02773797034738 -3 1 1
309 3 1 0.64 16.21287817631642 35.47090770408539 35.154374835529616 -3 1 1
434 4 3 0.053 17.648183042091368 30.859141554461424 32.115796676226395 1 0 -1
308 3 4 -0.44 17.863975698701886 34.865222716748846 35.28412155890155 -3 1 1
310 3 2 -0.259 15.12459587769127 34.366125234955646 34.14841625123835 -3 1 1
312 3 3 0.053 14.904327364037542 33.389185807623875 34.55490643364327 -3 1 1
314 3 3 0.053 14.21353833640562 34.93956091370911 33.995456765704354 -3 1 1
306 3 3 0.053 18.514602903739544 32.98052493171378 32.60511990297552 -3 1 1
313 3 3 0.053 15.627992601347756 34.15099105226246 33.11874349926781 -3 1 1
302 3 3 0.053 18.84062978809495 31.401987776708097 34.541483756262544 -3 1 1
305 3 3 0.053 18.793070996264497 34.762693202465194 32.55324863774843 -3 1 1
301 3 2 -0.259 19.183273933666268 33.80210184613955 32.9271760494884 -3 1 1
299 3 1 0.64 19.219760272633863 33.936812283818874 34.81983718819899 -3 1 1
303 3 3 0.053 18.84443118041833 31.757835321264032 36.27842868692947 -3 1 1
304 3 3 0.053 20.307007048704516 31.77268770721738 35.346971512679104 -3 1 1
285 3 3 0.053 22.93521256788246 30.7126313334538 34.61329017886771 -3 1 1
274 3 3 0.053 23.48700759901169 31.658416261695088 31.39720762749367 -3 1 1
278 3 4 -0.44 24.909970691975058 33.044104104740654 33.69870560687525 -3 1 1
307 3 3 0.053 20.174054457371174 33.60291736570195 32.425195819744744 -3 1 1
281 3 2 -0.259 23.7418527224083 30.85504884378952 35.26281966509658 -3 1 1
288 3 4 -0.44 23.12926597423987 33.696073479501 35.55966429637716 -3 1 1
430 4 3 0.053 20.985853449715666 31.39282746721409 31.421021848088337 1 0 -1
270 3 2 -0.259 24.511181805316795 31.79881899504897 31.045649635272966 -3 1 1
279 3 1 0.64 24.40512969963479 32.67599888464861 35.23591323046763 -3 1 1
300 3 2 -0.259 19.25982891219055 32.07984875760889 35.31685672653947 -3 1 1